LAMMPS data file (FCC Fe–Ni–Cr, equiatomic ~1/3 each)
500 atoms
3 atom types

0.000000 10.000000 xlo xhi
0.000000 10.000000 ylo yhi
0.000000 10.000000 zlo zhi

Masses

1 55.845000 # Fe
2 58.693400 # Ni
3 51.996100 # Cr

Atoms # atomic
1 1 0.00000000 0.00000000 0.00000000
2 3 1.00000000 1.00000000 0.00000000
3 1 1.00000000 0.00000000 1.00000000
4 1 0.00000000 1.00000000 1.00000000
5 1 0.00000000 0.00000000 2.00000000
6 1 1.00000000 1.00000000 2.00000000
7 2 1.00000000 0.00000000 3.00000000
8 2 0.00000000 1.00000000 3.00000000
9 1 0.00000000 0.00000000 4.00000000
10 3 1.00000000 1.00000000 4.00000000
11 3 1.00000000 0.00000000 5.00000000
12 3 0.00000000 1.00000000 5.00000000
13 1 0.00000000 0.00000000 6.00000000
14 2 1.00000000 1.00000000 6.00000000
15 3 1.00000000 0.00000000 7.00000000
16 1 0.00000000 1.00000000 7.00000000
17 3 0.00000000 0.00000000 8.00000000
18 1 1.00000000 1.00000000 8.00000000
19 2 1.00000000 0.00000000 9.00000000
20 2 0.00000000 1.00000000 9.00000000
21 3 0.00000000 2.00000000 0.00000000
22 2 1.00000000 3.00000000 0.00000000
23 2 1.00000000 2.00000000 1.00000000
24 3 0.00000000 3.00000000 1.00000000
25 1 0.00000000 2.00000000 2.00000000
26 3 1.00000000 3.00000000 2.00000000
27 2 1.00000000 2.00000000 3.00000000
28 2 0.00000000 3.00000000 3.00000000
29 2 0.00000000 2.00000000 4.00000000
30 2 1.00000000 3.00000000 4.00000000
31 1 1.00000000 2.00000000 5.00000000
32 1 0.00000000 3.00000000 5.00000000
33 2 0.00000000 2.00000000 6.00000000
34 1 1.00000000 3.00000000 6.00000000
35 2 1.00000000 2.00000000 7.00000000
36 1 0.00000000 3.00000000 7.00000000
37 3 0.00000000 2.00000000 8.00000000
38 1 1.00000000 3.00000000 8.00000000
39 2 1.00000000 2.00000000 9.00000000
40 1 0.00000000 3.00000000 9.00000000
41 3 0.00000000 4.00000000 0.00000000
42 2 1.00000000 5.00000000 0.00000000
43 1 1.00000000 4.00000000 1.00000000
44 2 0.00000000 5.00000000 1.00000000
45 3 0.00000000 4.00000000 2.00000000
46 1 1.00000000 5.00000000 2.00000000
47 1 1.00000000 4.00000000 3.00000000
48 2 0.00000000 5.00000000 3.00000000
49 2 0.00000000 4.00000000 4.00000000
50 2 1.00000000 5.00000000 4.00000000
51 1 1.00000000 4.00000000 5.00000000
52 1 0.00000000 5.00000000 5.00000000
53 3 0.00000000 4.00000000 6.00000000
54 2 1.00000000 5.00000000 6.00000000
55 1 1.00000000 4.00000000 7.00000000
56 2 0.00000000 5.00000000 7.00000000
57 2 0.00000000 4.00000000 8.00000000
58 1 1.00000000 5.00000000 8.00000000
59 1 1.00000000 4.00000000 9.00000000
60 3 0.00000000 5.00000000 9.00000000
61 2 0.00000000 6.00000000 0.00000000
62 3 1.00000000 7.00000000 0.00000000
63 1 1.00000000 6.00000000 1.00000000
64 1 0.00000000 7.00000000 1.00000000
65 1 0.00000000 6.00000000 2.00000000
66 1 1.00000000 7.00000000 2.00000000
67 2 1.00000000 6.00000000 3.00000000
68 2 0.00000000 7.00000000 3.00000000
69 3 0.00000000 6.00000000 4.00000000
70 3 1.00000000 7.00000000 4.00000000
71 1 1.00000000 6.00000000 5.00000000
72 3 0.00000000 7.00000000 5.00000000
73 2 0.00000000 6.00000000 6.00000000
74 3 1.00000000 7.00000000 6.00000000
75 3 1.00000000 6.00000000 7.00000000
76 3 0.00000000 7.00000000 7.00000000
77 2 0.00000000 6.00000000 8.00000000
78 3 1.00000000 7.00000000 8.00000000
79 2 1.00000000 6.00000000 9.00000000
80 1 0.00000000 7.00000000 9.00000000
81 1 0.00000000 8.00000000 0.00000000
82 1 1.00000000 9.00000000 0.00000000
83 3 1.00000000 8.00000000 1.00000000
84 2 0.00000000 9.00000000 1.00000000
85 3 0.00000000 8.00000000 2.00000000
86 3 1.00000000 9.00000000 2.00000000
87 3 1.00000000 8.00000000 3.00000000
88 1 0.00000000 9.00000000 3.00000000
89 3 0.00000000 8.00000000 4.00000000
90 1 1.00000000 9.00000000 4.00000000
91 1 1.00000000 8.00000000 5.00000000
92 2 0.00000000 9.00000000 5.00000000
93 2 0.00000000 8.00000000 6.00000000
94 2 1.00000000 9.00000000 6.00000000
95 2 1.00000000 8.00000000 7.00000000
96 1 0.00000000 9.00000000 7.00000000
97 1 0.00000000 8.00000000 8.00000000
98 3 1.00000000 9.00000000 8.00000000
99 3 1.00000000 8.00000000 9.00000000
100 1 0.00000000 9.00000000 9.00000000
101 2 2.00000000 0.00000000 0.00000000
102 3 3.00000000 1.00000000 0.00000000
103 2 3.00000000 0.00000000 1.00000000
104 3 2.00000000 1.00000000 1.00000000
105 1 2.00000000 0.00000000 2.00000000
106 2 3.00000000 1.00000000 2.00000000
107 2 3.00000000 0.00000000 3.00000000
108 3 2.00000000 1.00000000 3.00000000
109 1 2.00000000 0.00000000 4.00000000
110 2 3.00000000 1.00000000 4.00000000
111 1 3.00000000 0.00000000 5.00000000
112 3 2.00000000 1.00000000 5.00000000
113 1 2.00000000 0.00000000 6.00000000
114 1 3.00000000 1.00000000 6.00000000
115 3 3.00000000 0.00000000 7.00000000
116 3 2.00000000 1.00000000 7.00000000
117 3 2.00000000 0.00000000 8.00000000
118 1 3.00000000 1.00000000 8.00000000
119 1 3.00000000 0.00000000 9.00000000
120 2 2.00000000 1.00000000 9.00000000
121 1 2.00000000 2.00000000 0.00000000
122 2 3.00000000 3.00000000 0.00000000
123 3 3.00000000 2.00000000 1.00000000
124 2 2.00000000 3.00000000 1.00000000
125 2 2.00000000 2.00000000 2.00000000
126 3 3.00000000 3.00000000 2.00000000
127 2 3.00000000 2.00000000 3.00000000
128 2 2.00000000 3.00000000 3.00000000
129 1 2.00000000 2.00000000 4.00000000
130 2 3.00000000 3.00000000 4.00000000
131 2 3.00000000 2.00000000 5.00000000
132 1 2.00000000 3.00000000 5.00000000
133 1 2.00000000 2.00000000 6.00000000
134 3 3.00000000 3.00000000 6.00000000
135 2 3.00000000 2.00000000 7.00000000
136 1 2.00000000 3.00000000 7.00000000
137 2 2.00000000 2.00000000 8.00000000
138 2 3.00000000 3.00000000 8.00000000
139 3 3.00000000 2.00000000 9.00000000
140 3 2.00000000 3.00000000 9.00000000
141 1 2.00000000 4.00000000 0.00000000
142 3 3.00000000 5.00000000 0.00000000
143 1 3.00000000 4.00000000 1.00000000
144 2 2.00000000 5.00000000 1.00000000
145 1 2.00000000 4.00000000 2.00000000
146 1 3.00000000 5.00000000 2.00000000
147 3 3.00000000 4.00000000 3.00000000
148 2 2.00000000 5.00000000 3.00000000
149 2 2.00000000 4.00000000 4.00000000
150 3 3.00000000 5.00000000 4.00000000
151 2 3.00000000 4.00000000 5.00000000
152 1 2.00000000 5.00000000 5.00000000
153 3 2.00000000 4.00000000 6.00000000
154 2 3.00000000 5.00000000 6.00000000
155 3 3.00000000 4.00000000 7.00000000
156 3 2.00000000 5.00000000 7.00000000
157 2 2.00000000 4.00000000 8.00000000
158 1 3.00000000 5.00000000 8.00000000
159 3 3.00000000 4.00000000 9.00000000
160 1 2.00000000 5.00000000 9.00000000
161 1 2.00000000 6.00000000 0.00000000
162 2 3.00000000 7.00000000 0.00000000
163 2 3.00000000 6.00000000 1.00000000
164 2 2.00000000 7.00000000 1.00000000
165 3 2.00000000 6.00000000 2.00000000
166 2 3.00000000 7.00000000 2.00000000
167 1 3.00000000 6.00000000 3.00000000
168 2 2.00000000 7.00000000 3.00000000
169 3 2.00000000 6.00000000 4.00000000
170 3 3.00000000 7.00000000 4.00000000
171 2 3.00000000 6.00000000 5.00000000
172 2 2.00000000 7.00000000 5.00000000
173 3 2.00000000 6.00000000 6.00000000
174 1 3.00000000 7.00000000 6.00000000
175 1 3.00000000 6.00000000 7.00000000
176 1 2.00000000 7.00000000 7.00000000
177 2 2.00000000 6.00000000 8.00000000
178 1 3.00000000 7.00000000 8.00000000
179 3 3.00000000 6.00000000 9.00000000
180 3 2.00000000 7.00000000 9.00000000
181 2 2.00000000 8.00000000 0.00000000
182 2 3.00000000 9.00000000 0.00000000
183 2 3.00000000 8.00000000 1.00000000
184 3 2.00000000 9.00000000 1.00000000
185 3 2.00000000 8.00000000 2.00000000
186 1 3.00000000 9.00000000 2.00000000
187 1 3.00000000 8.00000000 3.00000000
188 3 2.00000000 9.00000000 3.00000000
189 1 2.00000000 8.00000000 4.00000000
190 2 3.00000000 9.00000000 4.00000000
191 3 3.00000000 8.00000000 5.00000000
192 2 2.00000000 9.00000000 5.00000000
193 2 2.00000000 8.00000000 6.00000000
194 3 3.00000000 9.00000000 6.00000000
195 1 3.00000000 8.00000000 7.00000000
196 2 2.00000000 9.00000000 7.00000000
197 1 2.00000000 8.00000000 8.00000000
198 1 3.00000000 9.00000000 8.00000000
199 2 3.00000000 8.00000000 9.00000000
200 3 2.00000000 9.00000000 9.00000000
201 2 4.00000000 0.00000000 0.00000000
202 2 5.00000000 1.00000000 0.00000000
203 3 5.00000000 0.00000000 1.00000000
204 3 4.00000000 1.00000000 1.00000000
205 2 4.00000000 0.00000000 2.00000000
206 3 5.00000000 1.00000000 2.00000000
207 1 5.00000000 0.00000000 3.00000000
208 1 4.00000000 1.00000000 3.00000000
209 2 4.00000000 0.00000000 4.00000000
210 1 5.00000000 1.00000000 4.00000000
211 3 5.00000000 0.00000000 5.00000000
212 3 4.00000000 1.00000000 5.00000000
213 3 4.00000000 0.00000000 6.00000000
214 2 5.00000000 1.00000000 6.00000000
215 3 5.00000000 0.00000000 7.00000000
216 3 4.00000000 1.00000000 7.00000000
217 2 4.00000000 0.00000000 8.00000000
218 3 5.00000000 1.00000000 8.00000000
219 3 5.00000000 0.00000000 9.00000000
220 1 4.00000000 1.00000000 9.00000000
221 2 4.00000000 2.00000000 0.00000000
222 3 5.00000000 3.00000000 0.00000000
223 1 5.00000000 2.00000000 1.00000000
224 3 4.00000000 3.00000000 1.00000000
225 1 4.00000000 2.00000000 2.00000000
226 3 5.00000000 3.00000000 2.00000000
227 1 5.00000000 2.00000000 3.00000000
228 2 4.00000000 3.00000000 3.00000000
229 2 4.00000000 2.00000000 4.00000000
230 3 5.00000000 3.00000000 4.00000000
231 3 5.00000000 2.00000000 5.00000000
232 3 4.00000000 3.00000000 5.00000000
233 2 4.00000000 2.00000000 6.00000000
234 3 5.00000000 3.00000000 6.00000000
235 1 5.00000000 2.00000000 7.00000000
236 3 4.00000000 3.00000000 7.00000000
237 1 4.00000000 2.00000000 8.00000000
238 3 5.00000000 3.00000000 8.00000000
239 2 5.00000000 2.00000000 9.00000000
240 2 4.00000000 3.00000000 9.00000000
241 3 4.00000000 4.00000000 0.00000000
242 1 5.00000000 5.00000000 0.00000000
243 1 5.00000000 4.00000000 1.00000000
244 2 4.00000000 5.00000000 1.00000000
245 2 4.00000000 4.00000000 2.00000000
246 2 5.00000000 5.00000000 2.00000000
247 1 5.00000000 4.00000000 3.00000000
248 3 4.00000000 5.00000000 3.00000000
249 1 4.00000000 4.00000000 4.00000000
250 1 5.00000000 5.00000000 4.00000000
251 2 5.00000000 4.00000000 5.00000000
252 3 4.00000000 5.00000000 5.00000000
253 3 4.00000000 4.00000000 6.00000000
254 3 5.00000000 5.00000000 6.00000000
255 3 5.00000000 4.00000000 7.00000000
256 1 4.00000000 5.00000000 7.00000000
257 2 4.00000000 4.00000000 8.00000000
258 3 5.00000000 5.00000000 8.00000000
259 1 5.00000000 4.00000000 9.00000000
260 2 4.00000000 5.00000000 9.00000000
261 2 4.00000000 6.00000000 0.00000000
262 3 5.00000000 7.00000000 0.00000000
263 1 5.00000000 6.00000000 1.00000000
264 2 4.00000000 7.00000000 1.00000000
265 1 4.00000000 6.00000000 2.00000000
266 3 5.00000000 7.00000000 2.00000000
267 3 5.00000000 6.00000000 3.00000000
268 3 4.00000000 7.00000000 3.00000000
269 3 4.00000000 6.00000000 4.00000000
270 1 5.00000000 7.00000000 4.00000000
271 2 5.00000000 6.00000000 5.00000000
272 3 4.00000000 7.00000000 5.00000000
273 1 4.00000000 6.00000000 6.00000000
274 3 5.00000000 7.00000000 6.00000000
275 1 5.00000000 6.00000000 7.00000000
276 2 4.00000000 7.00000000 7.00000000
277 2 4.00000000 6.00000000 8.00000000
278 2 5.00000000 7.00000000 8.00000000
279 2 5.00000000 6.00000000 9.00000000
280 3 4.00000000 7.00000000 9.00000000
281 1 4.00000000 8.00000000 0.00000000
282 1 5.00000000 9.00000000 0.00000000
283 2 5.00000000 8.00000000 1.00000000
284 3 4.00000000 9.00000000 1.00000000
285 3 4.00000000 8.00000000 2.00000000
286 3 5.00000000 9.00000000 2.00000000
287 3 5.00000000 8.00000000 3.00000000
288 1 4.00000000 9.00000000 3.00000000
289 2 4.00000000 8.00000000 4.00000000
290 2 5.00000000 9.00000000 4.00000000
291 1 5.00000000 8.00000000 5.00000000
292 1 4.00000000 9.00000000 5.00000000
293 2 4.00000000 8.00000000 6.00000000
294 3 5.00000000 9.00000000 6.00000000
295 2 5.00000000 8.00000000 7.00000000
296 1 4.00000000 9.00000000 7.00000000
297 3 4.00000000 8.00000000 8.00000000
298 3 5.00000000 9.00000000 8.00000000
299 1 5.00000000 8.00000000 9.00000000
300 1 4.00000000 9.00000000 9.00000000
301 1 6.00000000 0.00000000 0.00000000
302 1 7.00000000 1.00000000 0.00000000
303 3 7.00000000 0.00000000 1.00000000
304 2 6.00000000 1.00000000 1.00000000
305 1 6.00000000 0.00000000 2.00000000
306 2 7.00000000 1.00000000 2.00000000
307 1 7.00000000 0.00000000 3.00000000
308 2 6.00000000 1.00000000 3.00000000
309 1 6.00000000 0.00000000 4.00000000
310 2 7.00000000 1.00000000 4.00000000
311 2 7.00000000 0.00000000 5.00000000
312 1 6.00000000 1.00000000 5.00000000
313 2 6.00000000 0.00000000 6.00000000
314 3 7.00000000 1.00000000 6.00000000
315 3 7.00000000 0.00000000 7.00000000
316 3 6.00000000 1.00000000 7.00000000
317 2 6.00000000 0.00000000 8.00000000
318 1 7.00000000 1.00000000 8.00000000
319 1 7.00000000 0.00000000 9.00000000
320 2 6.00000000 1.00000000 9.00000000
321 1 6.00000000 2.00000000 0.00000000
322 2 7.00000000 3.00000000 0.00000000
323 3 7.00000000 2.00000000 1.00000000
324 1 6.00000000 3.00000000 1.00000000
325 3 6.00000000 2.00000000 2.00000000
326 1 7.00000000 3.00000000 2.00000000
327 2 7.00000000 2.00000000 3.00000000
328 3 6.00000000 3.00000000 3.00000000
329 3 6.00000000 2.00000000 4.00000000
330 3 7.00000000 3.00000000 4.00000000
331 2 7.00000000 2.00000000 5.00000000
332 3 6.00000000 3.00000000 5.00000000
333 3 6.00000000 2.00000000 6.00000000
334 1 7.00000000 3.00000000 6.00000000
335 1 7.00000000 2.00000000 7.00000000
336 2 6.00000000 3.00000000 7.00000000
337 1 6.00000000 2.00000000 8.00000000
338 2 7.00000000 3.00000000 8.00000000
339 2 7.00000000 2.00000000 9.00000000
340 3 6.00000000 3.00000000 9.00000000
341 2 6.00000000 4.00000000 0.00000000
342 2 7.00000000 5.00000000 0.00000000
343 1 7.00000000 4.00000000 1.00000000
344 2 6.00000000 5.00000000 1.00000000
345 3 6.00000000 4.00000000 2.00000000
346 3 7.00000000 5.00000000 2.00000000
347 3 7.00000000 4.00000000 3.00000000
348 1 6.00000000 5.00000000 3.00000000
349 1 6.00000000 4.00000000 4.00000000
350 1 7.00000000 5.00000000 4.00000000
351 1 7.00000000 4.00000000 5.00000000
352 2 6.00000000 5.00000000 5.00000000
353 2 6.00000000 4.00000000 6.00000000
354 1 7.00000000 5.00000000 6.00000000
355 3 7.00000000 4.00000000 7.00000000
356 3 6.00000000 5.00000000 7.00000000
357 2 6.00000000 4.00000000 8.00000000
358 2 7.00000000 5.00000000 8.00000000
359 2 7.00000000 4.00000000 9.00000000
360 2 6.00000000 5.00000000 9.00000000
361 1 6.00000000 6.00000000 0.00000000
362 2 7.00000000 7.00000000 0.00000000
363 3 7.00000000 6.00000000 1.00000000
364 1 6.00000000 7.00000000 1.00000000
365 3 6.00000000 6.00000000 2.00000000
366 3 7.00000000 7.00000000 2.00000000
367 1 7.00000000 6.00000000 3.00000000
368 2 6.00000000 7.00000000 3.00000000
369 2 6.00000000 6.00000000 4.00000000
370 2 7.00000000 7.00000000 4.00000000
371 2 7.00000000 6.00000000 5.00000000
372 3 6.00000000 7.00000000 5.00000000
373 3 6.00000000 6.00000000 6.00000000
374 3 7.00000000 7.00000000 6.00000000
375 3 7.00000000 6.00000000 7.00000000
376 2 6.00000000 7.00000000 7.00000000
377 1 6.00000000 6.00000000 8.00000000
378 1 7.00000000 7.00000000 8.00000000
379 1 7.00000000 6.00000000 9.00000000
380 2 6.00000000 7.00000000 9.00000000
381 1 6.00000000 8.00000000 0.00000000
382 3 7.00000000 9.00000000 0.00000000
383 1 7.00000000 8.00000000 1.00000000
384 1 6.00000000 9.00000000 1.00000000
385 2 6.00000000 8.00000000 2.00000000
386 3 7.00000000 9.00000000 2.00000000
387 3 7.00000000 8.00000000 3.00000000
388 2 6.00000000 9.00000000 3.00000000
389 3 6.00000000 8.00000000 4.00000000
390 3 7.00000000 9.00000000 4.00000000
391 1 7.00000000 8.00000000 5.00000000
392 3 6.00000000 9.00000000 5.00000000
393 2 6.00000000 8.00000000 6.00000000
394 3 7.00000000 9.00000000 6.00000000
395 3 7.00000000 8.00000000 7.00000000
396 3 6.00000000 9.00000000 7.00000000
397 2 6.00000000 8.00000000 8.00000000
398 1 7.00000000 9.00000000 8.00000000
399 3 7.00000000 8.00000000 9.00000000
400 2 6.00000000 9.00000000 9.00000000
401 1 8.00000000 0.00000000 0.00000000
402 2 9.00000000 1.00000000 0.00000000
403 3 9.00000000 0.00000000 1.00000000
404 3 8.00000000 1.00000000 1.00000000
405 1 8.00000000 0.00000000 2.00000000
406 3 9.00000000 1.00000000 2.00000000
407 1 9.00000000 0.00000000 3.00000000
408 2 8.00000000 1.00000000 3.00000000
409 2 8.00000000 0.00000000 4.00000000
410 1 9.00000000 1.00000000 4.00000000
411 2 9.00000000 0.00000000 5.00000000
412 2 8.00000000 1.00000000 5.00000000
413 2 8.00000000 0.00000000 6.00000000
414 3 9.00000000 1.00000000 6.00000000
415 3 9.00000000 0.00000000 7.00000000
416 1 8.00000000 1.00000000 7.00000000
417 3 8.00000000 0.00000000 8.00000000
418 3 9.00000000 1.00000000 8.00000000
419 1 9.00000000 0.00000000 9.00000000
420 3 8.00000000 1.00000000 9.00000000
421 1 8.00000000 2.00000000 0.00000000
422 3 9.00000000 3.00000000 0.00000000
423 1 9.00000000 2.00000000 1.00000000
424 1 8.00000000 3.00000000 1.00000000
425 3 8.00000000 2.00000000 2.00000000
426 1 9.00000000 3.00000000 2.00000000
427 2 9.00000000 2.00000000 3.00000000
428 2 8.00000000 3.00000000 3.00000000
429 2 8.00000000 2.00000000 4.00000000
430 2 9.00000000 3.00000000 4.00000000
431 3 9.00000000 2.00000000 5.00000000
432 1 8.00000000 3.00000000 5.00000000
433 2 8.00000000 2.00000000 6.00000000
434 1 9.00000000 3.00000000 6.00000000
435 2 9.00000000 2.00000000 7.00000000
436 1 8.00000000 3.00000000 7.00000000
437 2 8.00000000 2.00000000 8.00000000
438 2 9.00000000 3.00000000 8.00000000
439 3 9.00000000 2.00000000 9.00000000
440 1 8.00000000 3.00000000 9.00000000
441 3 8.00000000 4.00000000 0.00000000
442 1 9.00000000 5.00000000 0.00000000
443 2 9.00000000 4.00000000 1.00000000
444 2 8.00000000 5.00000000 1.00000000
445 3 8.00000000 4.00000000 2.00000000
446 2 9.00000000 5.00000000 2.00000000
447 1 9.00000000 4.00000000 3.00000000
448 2 8.00000000 5.00000000 3.00000000
449 3 8.00000000 4.00000000 4.00000000
450 3 9.00000000 5.00000000 4.00000000
451 2 9.00000000 4.00000000 5.00000000
452 3 8.00000000 5.00000000 5.00000000
453 1 8.00000000 4.00000000 6.00000000
454 1 9.00000000 5.00000000 6.00000000
455 3 9.00000000 4.00000000 7.00000000
456 2 8.00000000 5.00000000 7.00000000
457 3 8.00000000 4.00000000 8.00000000
458 3 9.00000000 5.00000000 8.00000000
459 1 9.00000000 4.00000000 9.00000000
460 3 8.00000000 5.00000000 9.00000000
461 3 8.00000000 6.00000000 0.00000000
462 1 9.00000000 7.00000000 0.00000000
463 3 9.00000000 6.00000000 1.00000000
464 3 8.00000000 7.00000000 1.00000000
465 1 8.00000000 6.00000000 2.00000000
466 2 9.00000000 7.00000000 2.00000000
467 2 9.00000000 6.00000000 3.00000000
468 1 8.00000000 7.00000000 3.00000000
469 2 8.00000000 6.00000000 4.00000000
470 3 9.00000000 7.00000000 4.00000000
471 3 9.00000000 6.00000000 5.00000000
472 3 8.00000000 7.00000000 5.00000000
473 3 8.00000000 6.00000000 6.00000000
474 1 9.00000000 7.00000000 6.00000000
475 2 9.00000000 6.00000000 7.00000000
476 1 8.00000000 7.00000000 7.00000000
477 2 8.00000000 6.00000000 8.00000000
478 2 9.00000000 7.00000000 8.00000000
479 1 9.00000000 6.00000000 9.00000000
480 1 8.00000000 7.00000000 9.00000000
481 1 8.00000000 8.00000000 0.00000000
482 1 9.00000000 9.00000000 0.00000000
483 1 9.00000000 8.00000000 1.00000000
484 2 8.00000000 9.00000000 1.00000000
485 2 8.00000000 8.00000000 2.00000000
486 1 9.00000000 9.00000000 2.00000000
487 2 9.00000000 8.00000000 3.00000000
488 3 8.00000000 9.00000000 3.00000000
489 3 8.00000000 8.00000000 4.00000000
490 3 9.00000000 9.00000000 4.00000000
491 1 9.00000000 8.00000000 5.00000000
492 3 8.00000000 9.00000000 5.00000000
493 1 8.00000000 8.00000000 6.00000000
494 1 9.00000000 9.00000000 6.00000000
495 1 9.00000000 8.00000000 7.00000000
496 1 8.00000000 9.00000000 7.00000000
497 3 8.00000000 8.00000000 8.00000000
498 1 9.00000000 9.00000000 8.00000000
499 1 9.00000000 8.00000000 9.00000000
500 2 8.00000000 9.00000000 9.00000000
